LAMMPS data file via write_data, version 23 Jun 2022, timestep = 0

4048 atoms
16 atom types
4932 bonds
25 bond types
9534 angles
62 angle types
20088 dihedrals
180 dihedral types

 259.994507   369.994507  xlo xhi
 -280.031494 -176.031494  ylo yhi
 -235.991505 -126.991505  zlo zhi

Masses

1 1.008
2 1.008
3 12.011
4 15.999
5 1.008
6 1.008
7 1.008
8 12.011
9 12.011
10 12.011
11 12.011
12 12.011
13 15.999
14 15.999
15 15.999
16 15.999

Pair Coeffs # lj/charmmfsw/coul/long

1 0.03 2.42004 0.03 2.42004
2 0.046 0.400014 0.046 0.400014
3 0.07 3.55005 0.07 3.55005
4 0.1521 3.15057 0.1521 3.15057
5 0.045 2.38761 0.045 2.38761
6 0.035 2.38761 0.035 2.38761
7 0.046 0.400014 0.046 0.400014
8 0.032 3.56359 0.01 3.38542
9 0.056 3.58141 0.01 3.38542
10 0.036 3.58141 0.01 3.38542
11 0.06 3.59923 0.01 3.38542
12 0.032 3.56359 0.01 3.38542
13 0.1 2.93997 0.1 2.93997
14 0.1921 3.14487 0.1921 3.14487
15 0.1 2.93997 0.1 2.93997
16 0.1 2.93997 0.1 2.93997

Bond Coeffs # harmonic

1 305 1.375
2 340 1.08
3 450 0.9572
4 222.5 1.5
5 222.5 1.538
6 222.5 1.524
7 309 1.111
8 360 1.415
9 428 1.42
10 360 1.415
11 309 1.111
12 428 1.42
13 360 1.415
14 222.5 1.524
15 307 1.1
16 334.3 1.411
17 222.5 1.524
18 307 1.1
19 350 1.425
20 222.5 1.523
21 309 1.111
22 334.3 1.411
23 260 1.42
24 334.3 1.411
25 545 0.96

Angle Coeffs # charmm

1 40 120 35 2.4162
2 30 120 22 2.1525
3 55 104.52 0 0
4 53.35 111 8 2.561
5 53.35 111 8 2.561
6 53.35 103.7 8 2.561
7 34.5 110.1 22.53 2.179
8 115 109.7 0 0
9 75.7 110.1 0 0
10 45 111.5 0 0
11 33.43 110.1 22.53 2.179
12 75.7 110.1 0 0
13 45 111.5 0 0
14 58.35 113.5 11.16 2.561
15 53.35 108 8 2.561
16 34.5 110.1 22.53 2.179
17 55 106 0 0
18 95 109.7 0 0
19 65 107 0 0
20 65 107 0 0
21 50 106 0 0
22 95 109.7 0 0
23 95 109.7 0 0
24 53.35 103.7 8 2.561
25 34.5 110.1 22.53 2.179
26 75.7 110 0 0
27 45 111.5 0 0
28 50 106 0 0
29 95 109.7 0 0
30 70 109 0 0
31 34.5 110.1 22.53 2.179
32 45 111.1 0 0
33 58 106.5 8 2.561
34 53.35 111 8 2.561
35 34.5 110.1 22.53 2.179
36 58 106.5 8 2.561
37 170 109 0 0
38 34.5 110.1 22.53 2.179
39 75.7 110.1 0 0
40 53.35 103.7 8 2.561
41 34.5 110.1 22.53 2.179
42 58 106.5 8 2.561
43 34.5 110.1 22.53 2.179
44 45 111.1 0 0
45 50 109 0 0
46 34.5 110.1 22.53 2.179
47 53.35 111 8 2.561
48 50 109 0 0
49 53.35 111 8 2.561
50 35.5 109 5.4 1.802
51 38.5 106.8 5.4 1.802
52 60 109.5 0 0
53 90 112 0 0
54 45.9 108.5 0 0
55 45.9 108.5 0 0
56 45.9 108.89 0 0
57 45.9 108.89 0 0
58 70 107.3 0 0
59 55 106 0 0
60 45 109.5 0 0
61 45 109.5 0 0
62 45.9 108.5 0 0

Dihedral Coeffs # charmmfsw

1 3.1 2 180 0.5
2 3.1 2 180 1
3 4.2 2 180 1
4 2.4 2 180 1
5 0.5 4 180 0.5
6 0.5 4 180 1
7 0.195 3 0 1
8 0.16 1 180 1
9 0.39 2 0 0
10 0.14 3 0 1
11 0.19 1 180 0.5
12 1 2 180 0
13 0.6 3 0 0
14 0.08 4 180 0
15 0.195 3 0 1
16 0.2 3 180 1
17 0.15 3 0 0.5
18 0.15 3 0 0.5
19 0.15 3 0 1
20 0.15 3 0 1
21 0.4 1 0 1
22 0.49 3 0 0
23 0.45 3 0 1
24 0.45 3 0 1
25 1.33 1 0 1
26 0.18 2 0 0
27 0.46 3 0 0
28 0.53 1 180 0.5
29 0.68 2 0 0
30 0.21 3 180 0
31 0.15 4 0 0
32 0.53 1 180 0.5
33 0.68 2 0 0
34 0.21 3 180 0
35 0.15 4 0 0
36 1.13 1 0 1
37 0.14 2 0 0
38 0.24 3 0 0
39 0.53 1 180 0.5
40 0.68 2 0 0
41 0.21 3 180 0
42 0.15 4 0 0
43 0.15 3 0 0.5
44 0.15 3 0 1
45 4 3 0 1
46 0 3 0 1
47 0.195 3 0 1
48 0.14 3 0 1
49 0.15 3 0 0.5
50 0.15 3 0 1
51 0.5 4 180 1
52 0.3 1 0 1
53 0.3 3 0 0
54 0.53 1 180 1
55 0.68 2 0 0
56 0.21 3 180 0
57 0.15 4 0 0
58 0 3 0 0
59 0.2 1 180 0.5
60 0.3 3 0 0
61 0.15 3 0 0
62 0.15 3 0 1
63 0.5 4 0 1
64 0.2 1 180 1
65 0.3 3 0 0
66 0.2 1 180 1
67 0.3 3 0 0
68 0.15 3 0 1
69 0.6 1 0 1
70 0.7 3 0 0
71 0.6 1 0 0.5
72 0.7 3 0 0
73 0.15 3 0 1
74 0.19 1 180 0.5
75 1 2 180 0
76 0.6 3 0 0
77 0.08 4 180 0
78 1.5 1 0 1
79 0.3 2 180 0
80 0.5 3 0 0
81 0.05 3 0 0.5
82 0 3 0 0
83 0.15 3 0 1
84 0 3 0 0
85 0.6 3 0 0.5
86 0.5 4 0 0
87 0.2 1 180 1
88 0.3 3 0 0
89 0.5 3 0 0
90 0.15 3 0 1
91 1.2 3 0 0
92 0.5 4 0 0.5
93 0.2 1 180 1
94 0.3 3 0 0
95 0 3 0 0
96 0.2 1 180 0.5
97 0.3 3 0 0
98 0.2 1 180 0.5
99 0.3 3 0 0
100 0.195 3 0 1
101 0.195 3 0 1
102 0.195 3 0 1
103 0.195 3 0 1
104 0.05 3 0 1
105 0.15 3 0 1
106 0.15 3 0 1
107 0.16 3 0 1
108 0.284 3 0 1
109 0.35 3 0 1
110 0.35 3 0 1
111 0 3 0 1
112 0.195 3 0 1
113 0.195 3 0 1
114 0.05 3 0 1
115 0.15 3 0 1
116 0.15 3 0 1
117 0.19 3 0 1
118 0.195 3 0 1
119 0.5 1 0 1
120 0.6 3 180 0
121 0.15 3 0 1
122 0.5 1 0 1
123 0.6 3 180 0
124 0.3 3 0 1
125 0.5 1 0 1
126 0.6 3 180 0
127 0.5 1 0 1
128 0.6 3 180 0
129 0.18 3 0 1
130 0.195 3 0 1
131 0 3 0 1
132 0.15 3 0 1
133 0.15 3 0 1
134 0.195 3 180 1
135 0.3 3 0 1
136 0.195 3 0 1
137 0.2 3 0 1
138 0.2 3 0 1
139 0.2 3 0 1
140 0.45 2 0 1
141 0.8 3 180 0
142 0.2 4 0 0
143 0.45 2 0 1
144 0.15 3 0 1
145 0.2 3 0 1
146 0.6 4 180 0
147 0.3 5 0 0
148 0.5 6 0 0
149 0 3 0 1
150 0.3 3 0 1
151 1.2 3 0 1
152 0.15 3 0 1
153 0.195 3 0 1
154 0.2 3 0 1
155 0.2 3 0 1
156 0.195 3 180 1
157 0.2 3 0 1
158 0.158 3 0 1
159 0.45 2 0 1
160 0.195 3 0 1
161 3.4 1 180 1
162 0 3 0 0
163 0.45 2 0 0
164 0.9 6 0 0
165 0.19 3 0 1
166 0.2 3 0 1
167 0.15 3 0 1
168 0.195 3 0 1
169 0.195 3 0 1
170 0.195 3 0 1
171 0.82 1 0 1
172 0.81 2 0 0
173 0.35 3 0 0
174 0.82 1 0 1
175 0.81 2 0 0
176 0.35 3 0 0
177 0.82 1 0 1
178 0.81 2 0 0
179 0.35 3 0 0
180 0.3 3 0 1

Atoms # full

1	1	3	0	307.8208375	-248.6122112	-220.5707965
2	1	3	0	309.0454945	-249.2046067	-220.1757762
3	1	3	0	309.6493732	-248.9933271	-218.919789
4	1	3	0	308.9324101	-248.2274175	-217.9529507
5	1	3	0	307.630048	-247.622561	-218.3150642
6	1	3	0	307.135677	-247.8123976	-219.6584846
7	1	3	0	305.9141679	-247.2804641	-220.0167443
8	1	1	0	307.4569737	-248.9079595	-221.5435824
9	1	1	0	309.575615	-249.8842527	-220.8308344
10	1	1	0	305.5300858	-247.4934638	-220.9876184
11	2	3	0	305.1766562	-246.4718377	-219.0824418
12	2	3	0	305.6998377	-246.1932101	-217.7904072
13	2	3	0	306.9319686	-246.7996557	-217.4023295
14	2	3	0	307.4802609	-246.5240602	-216.1596066
15	2	3	0	306.7963494	-245.6393534	-215.2383241
16	2	3	0	305.5638161	-245.0966646	-215.5549522
17	2	3	0	305.0307154	-245.2997048	-216.931873
18	2	3	0	303.9591135	-244.5090426	-217.3076666
19	2	1	0	304.2559134	-246.0887528	-219.4550119
20	2	1	0	303.4337789	-244.6038863	-218.280081
21	3	3	0	303.2755141	-243.6882206	-216.4257773
22	3	3	0	303.6382956	-243.6491005	-215.0877975
23	3	3	0	304.8689606	-244.2400777	-214.6649689
24	3	3	0	305.4020993	-243.9757412	-213.4240068
25	3	3	0	304.6394936	-243.2854088	-212.4365579
26	3	3	0	303.3538215	-242.7753645	-212.729051
27	3	3	0	302.8766184	-242.9736349	-214.0847854
28	3	3	0	301.5491855	-242.5839181	-214.3600438
29	3	1	0	302.3623814	-243.1500972	-216.750586
30	3	1	0	301.0623159	-242.8274348	-215.2866621
31	4	3	0	300.7572831	-242.0029172	-213.3885698
32	4	3	0	301.1933799	-241.7878809	-212.0859791
33	4	3	0	302.5865614	-242.0944424	-211.783573
34	4	3	0	303.0404219	-241.9854457	-210.4598599
35	4	3	0	302.3001047	-241.3176386	-209.4896375
36	4	3	0	300.9596519	-240.931868	-209.8121607
37	4	3	0	300.4131599	-241.1886001	-211.1261995
38	4	3	0	299.0839792	-240.7192715	-211.3800167
39	4	1	0	299.7354828	-241.7954171	-213.6897951
40	4	1	0	298.5963349	-240.8238301	-212.4206813
41	5	3	0	298.3291125	-240.1179608	-210.4019526
42	5	3	0	298.7825396	-239.9253379	-209.1072963
43	5	3	0	300.1286562	-240.3062191	-208.7911223
44	5	3	0	300.7198597	-240.0800245	-207.4990448
45	5	3	0	299.8912997	-239.4209089	-206.5300553
46	5	3	0	298.5759695	-239.0571595	-206.8477798
47	5	3	0	298.0396126	-239.2292311	-208.1508864
48	5	3	0	296.7158711	-238.8548038	-208.3529882
49	5	1	0	297.3865795	-239.7433716	-210.7135149
50	5	1	0	296.3584805	-238.8053306	-209.3836497
51	6	3	0	295.9538122	-238.323049	-207.3403588
52	6	3	0	296.4444494	-238.151649	-206.0395915
53	6	3	0	297.807608	-238.4561582	-205.7824045
54	6	3	0	298.3614845	-238.1526711	-204.5095606
55	6	3	0	297.5996371	-237.471263	-203.552723
56	6	3	0	296.2698092	-237.1153166	-203.8495259
57	6	3	0	295.6101041	-237.5723924	-205.0605434
58	6	3	0	294.2501868	-237.4122298	-205.1257676
59	6	1	0	294.9201498	-238.0659121	-207.6586481
60	6	1	0	293.6844989	-237.8676541	-205.875211
61	7	3	0	293.5403914	-236.7634083	-204.1879619
62	7	3	0	294.1147011	-236.2392513	-203.0607836
63	7	3	0	295.5121745	-236.3982299	-202.8280538
64	7	3	0	296.1119025	-235.9670308	-201.6551523
65	7	3	0	295.3011941	-235.2376647	-200.7204726
66	7	3	0	293.9131125	-234.9863856	-200.9512639
67	7	3	0	293.3216055	-235.5048117	-202.156976
68	7	3	0	291.9358469	-235.2228292	-202.3614779
69	7	1	0	292.5233636	-236.6062103	-204.4819885
70	7	1	0	291.4067794	-235.6259596	-203.1510378
71	8	3	0	291.2253476	-234.4646949	-201.4329642
72	8	3	0	291.7632324	-233.9649474	-200.2528192
73	8	3	0	293.1480833	-234.2685317	-199.9992426
74	8	3	0	293.8052582	-233.6385079	-198.7962917
75	8	3	0	293.106731	-232.8889761	-197.9132989
76	8	3	0	291.7335491	-232.6127167	-198.1753984
77	8	3	0	291.0494728	-233.0966854	-199.3398464
78	8	3	0	289.718221	-232.8094749	-199.5232685
79	8	1	0	290.1539384	-234.359326	-201.6144107
80	8	1	0	289.1529887	-233.0623743	-200.3996431
81	9	3	0	289.033852	-232.1090234	-198.5457973
82	9	3	0	289.5843201	-231.6071054	-197.3783546
83	9	3	0	290.9887334	-231.8784731	-197.2294749
84	9	3	0	291.6233658	-231.4110275	-196.0541399
85	9	3	0	290.8780752	-230.605045	-195.1440661
86	9	3	0	289.5439991	-230.2588414	-195.3592402
87	9	3	0	288.8621103	-230.8124522	-196.4242164
88	9	3	0	287.4891544	-230.5647075	-196.5833539
89	9	1	0	287.9912929	-231.8017736	-198.71989
90	9	1	0	286.9139691	-230.9181883	-197.4583679
91	10	3	0	286.8031757	-229.6606578	-195.78647
92	10	3	0	287.500756	-229.055901	-194.6763609
93	10	3	0	288.8259493	-229.4416858	-194.4412734
94	10	3	0	289.4899543	-228.9306111	-193.278017
95	10	3	0	288.8352331	-228.1513291	-192.2989999
96	10	3	0	287.5076193	-227.8092575	-192.5807356
97	10	3	0	286.8776561	-228.1403447	-193.8188559
98	10	3	0	285.6031257	-227.6127831	-194.118066
99	10	1	0	285.7844676	-229.3908384	-196.0399272
100	10	1	0	285.2418823	-227.7377643	-195.1627238
101	11	3	0	284.9531402	-226.7020833	-193.2588308
102	11	3	0	285.4536106	-226.4612821	-192.0085989
103	11	3	0	286.8083915	-226.9452239	-191.7186202
104	11	3	0	287.379765	-226.5369834	-190.5043412
105	11	3	0	286.6204446	-225.7953301	-189.5499643
106	11	3	0	285.2973172	-225.4482686	-189.8228613
107	11	3	0	284.7184056	-225.7780096	-191.0496479
108	11	3	0	283.4173246	-225.4477911	-191.2510414
109	11	1	0	284.0480215	-226.2781363	-193.642971
110	11	1	0	282.9573616	-225.7171956	-192.1273594
111	12	3	0	282.6010004	-224.888047	-190.2504229
112	12	3	0	283.1150828	-224.6013495	-188.9820012
113	12	3	0	284.5087878	-224.7979378	-188.8445541
114	12	3	0	285.040653	-224.4533593	-187.5678086
115	12	3	0	284.3215852	-223.8351826	-186.5076322
116	12	3	0	282.9387125	-223.5606971	-186.7287848
117	12	3	0	282.3484759	-223.9373573	-187.9803135
118	12	3	0	280.9712137	-223.6705566	-188.1473584
119	12	1	0	281.5802124	-224.5796545	-190.3765426
120	12	1	0	280.4617001	-223.9028981	-189.0832415
121	13	3	0	280.2433704	-222.9718721	-187.2304985
122	13	3	0	280.8453884	-222.5814849	-185.9913588
123	13	3	0	282.185879	-223.0080856	-185.7083526
124	13	3	0	282.7409373	-222.750453	-184.4941077
125	13	3	0	281.9599612	-222.121202	-183.5231535
126	13	3	0	280.6217209	-221.7222462	-183.7221765
127	13	3	0	280.0284002	-221.9522926	-184.9931959
128	13	3	0	278.747842	-221.6096716	-185.1984172
129	13	1	0	279.2160045	-222.7542602	-187.5881513
130	13	1	0	278.1702171	-221.8821726	-186.0524139
131	14	3	0	278.0161772	-220.9428145	-184.208215
132	14	3	0	278.4785125	-220.7203427	-182.9359147
133	14	3	0	279.8573831	-221.1527186	-182.6772763
134	14	3	0	280.4255369	-220.9246966	-181.4042488
135	14	3	0	279.6081581	-220.3169631	-180.3609299
136	14	3	0	278.3622068	-219.7637383	-180.6741429
137	14	3	0	277.817608	-219.9552097	-181.9803791
138	14	3	0	276.6503518	-219.2538745	-182.3202609
139	14	1	0	277.003696	-220.6906949	-184.5026959
140	14	1	0	276.2498298	-219.3309684	-183.3169711
141	15	3	0	275.8986584	-218.5787562	-181.3098589
142	15	3	0	276.3855435	-218.5737847	-179.9531105
143	15	3	0	277.6043508	-219.1762933	-179.7000264
144	15	3	0	278.1306948	-218.9367452	-178.4187866
145	15	3	0	277.4770625	-218.2081681	-177.4192425
146	15	3	0	276.223798	-217.6546303	-177.7373109
147	15	3	0	275.7210928	-217.8241954	-179.0410586
148	15	1	0	274.9473925	-218.1400676	-181.7117785
149	15	1	0	275.5905739	-217.1180261	-177.0075599
150	15	1	0	274.8586119	-217.3269782	-179.3080501
151	16	3	0	310.9450262	-249.489342	-218.5628152
152	16	3	0	311.552635	-248.9674058	-217.4095115
153	16	3	0	312.8595327	-249.4547874	-217.0474632
154	16	3	0	313.3945029	-249.1929239	-215.7601424
155	16	3	0	312.637802	-248.4683712	-214.7962949
156	16	3	0	311.3448107	-247.9497459	-215.1648345
157	16	3	0	310.8127879	-248.2319867	-216.450781
158	16	3	0	309.461731	-247.8835711	-216.7235287
159	16	1	0	311.5521672	-250.0720945	-219.2376837
160	16	1	0	313.4823058	-249.9480266	-217.7486621
161	17	3	0	308.759109	-247.0080015	-215.8140508
162	17	3	0	309.3836232	-246.6371641	-214.5764922
163	17	3	0	310.5858081	-247.1581044	-214.2415365
164	17	3	0	311.200188	-246.8174719	-212.9785735
165	17	3	0	310.4956037	-246.0012151	-212.0205961
166	17	3	0	309.1666737	-245.5827062	-212.3336746
167	17	3	0	308.6272952	-245.8400797	-213.637632
168	17	3	0	307.3684871	-245.3558677	-213.941842
169	18	3	0	306.6380683	-244.5152812	-212.9907656
170	18	3	0	307.1945795	-244.1901981	-211.7068655
171	18	3	0	308.4017064	-244.8065053	-211.3854379
172	18	3	0	308.9477108	-244.4320119	-210.152693
173	18	3	0	308.230022	-243.7314607	-209.1907222
174	18	3	0	306.9440949	-243.3064519	-209.4737933
175	18	3	0	306.464651	-243.4599204	-210.83095
176	18	3	0	305.1872655	-242.9740784	-211.1987714
177	19	3	0	304.3652466	-242.3675139	-210.1730532
178	19	3	0	304.8886941	-242.1010306	-208.8593162
179	19	3	0	306.1834137	-242.5467547	-208.5219466
180	19	3	0	306.7769703	-242.2571833	-207.2809628
181	19	3	0	305.9762486	-241.537131	-206.3245206
182	19	3	0	304.6904038	-241.0809319	-206.6360427
183	19	3	0	304.1002501	-241.4252849	-207.878585
184	19	3	0	302.7679352	-241.0798637	-208.1550825
185	20	3	0	302.0376613	-240.4149102	-207.1915828
186	20	3	0	302.6257078	-239.9573118	-205.9765803
187	20	3	0	303.980416	-240.2883161	-205.7055401
188	20	3	0	304.5864928	-239.9946425	-204.4377963
189	20	3	0	303.8148024	-239.2754486	-203.4889989
190	20	3	0	302.4286633	-239.0736393	-203.7710868
191	20	3	0	301.8547328	-239.3085817	-205.0297481
192	20	3	0	300.4478835	-239.1104255	-205.2482964
193	21	3	0	299.7321652	-238.3557671	-204.2809232
194	21	3	0	300.345088	-238.0021901	-203.0870448
195	21	3	0	301.6842653	-238.3539178	-202.766294
196	21	3	0	302.2652394	-237.9033844	-201.6229757
197	21	3	0	301.5599758	-237.0905085	-200.7441029
198	21	3	0	300.2197032	-236.7488135	-200.9984976
199	21	3	0	299.5784764	-237.2855155	-202.1274092
200	21	3	0	298.1746603	-237.050961	-202.3217184
201	22	3	0	297.4587366	-236.2790992	-201.3681527
202	22	3	0	298.0631081	-235.839183	-200.1604856
203	22	3	0	299.3975774	-236.1189275	-200.0068897
204	22	3	0	300.0218563	-235.6085616	-198.8108827
205	22	3	0	299.2551161	-234.7986868	-197.8602337
206	22	3	0	297.8598925	-234.6331201	-198.0491058
207	22	3	0	297.2863186	-235.0446341	-199.2575429
208	22	3	0	295.8858428	-234.7283279	-199.49713
209	23	3	0	295.1195649	-234.071666	-198.4870182
210	23	3	0	295.8088206	-233.4933652	-197.3793236
211	23	3	0	297.154503	-233.7870192	-197.1018302
212	23	3	0	297.8280871	-233.3655062	-195.9405943
213	23	3	0	297.0455498	-232.6558029	-195.0035709
214	23	3	0	295.7036972	-232.2559953	-195.243779
215	23	3	0	295.0581986	-232.743466	-196.401333
216	23	3	0	293.7018167	-232.4562418	-196.6984576
217	24	3	0	292.9890288	-231.6976045	-195.803822
218	24	3	0	293.6022308	-231.3487901	-194.5652401
219	24	3	0	294.9893304	-231.5625659	-194.2945935
220	24	3	0	295.6417757	-231.1134299	-193.1213353
221	24	3	0	294.8817825	-230.355716	-192.2323736
222	24	3	0	293.5420198	-230.0318758	-192.4937512
223	24	3	0	292.9425873	-230.5062764	-193.6559752
224	24	3	0	291.4995772	-230.1975093	-193.8886925
225	25	3	0	290.8407137	-229.3278239	-192.998322
226	25	3	0	291.5013799	-228.8430352	-191.7983684
227	25	3	0	292.8280912	-229.2923741	-191.5653248
228	25	3	0	293.4226764	-228.9320852	-190.299587
229	25	3	0	292.7080587	-228.0314441	-189.391051
230	25	3	0	291.3779135	-227.6758188	-189.6621506
231	25	3	0	290.7775286	-228.0399598	-190.9078972
232	25	3	0	289.4625525	-227.7046394	-191.1691751
233	26	3	0	288.7325038	-226.8560598	-190.2617243
234	26	3	0	289.2734062	-226.5591283	-188.9968635
235	26	3	0	290.6312635	-226.9017084	-188.7570155
236	26	3	0	291.2287582	-226.4953775	-187.5119777
237	26	3	0	290.4401407	-225.8802378	-186.5316979
238	26	3	0	289.097006	-225.4696247	-186.7515031
239	26	3	0	288.5154172	-225.8066104	-188.0017273
240	26	3	0	287.1861164	-225.4658012	-188.2873739
241	27	3	0	286.4142734	-224.8535556	-187.2546092
242	27	3	0	286.9914627	-224.5016607	-185.9844399
243	27	3	0	288.3520845	-224.8512756	-185.7497804
244	27	3	0	288.9122272	-224.5050578	-184.496011
245	27	3	0	288.1262296	-224.0368695	-183.4279129
246	27	3	0	286.7999678	-223.6908415	-183.7419856
247	27	3	0	286.2418959	-223.8643621	-185.0017547
248	27	3	0	284.9193527	-223.5751437	-185.2607023
249	28	3	0	284.1299302	-223.0161352	-184.2714294
250	28	3	0	284.6737716	-222.7551166	-182.9475234
251	28	3	0	286.0248395	-223.1650662	-182.6828329
252	28	3	0	286.5811412	-222.9527812	-181.3945857
253	28	3	0	285.8086229	-222.4228685	-180.331576
254	28	3	0	284.4374325	-222.0892419	-180.6009518
255	28	3	0	283.9315021	-222.2638592	-181.9314062
256	28	3	0	282.5092846	-221.8489827	-182.1966876
257	29	3	0	281.7681394	-221.3014123	-181.1660504
258	29	3	0	282.28261	-221.0897904	-179.8643461
259	29	3	0	283.6638614	-221.4425816	-179.5847003
260	29	3	0	284.2469666	-221.1906249	-178.3441576
261	29	3	0	283.4916018	-220.6028595	-177.2852305
262	29	3	0	282.1575172	-220.1304048	-177.5741564
263	29	3	0	281.5365468	-220.4498511	-178.8311673
264	29	3	0	280.210248	-220.0934366	-179.1159426
265	30	3	0	279.5006718	-219.4270586	-178.0892355
266	30	3	0	280.0252864	-219.2889671	-176.7786082
267	30	3	0	281.3877231	-219.56512	-176.5628261
268	30	3	0	281.9406367	-219.4033936	-175.2393807
269	30	3	0	281.1641386	-218.7710842	-174.2357194
270	30	3	0	279.8821895	-218.3036854	-174.5683218
271	30	3	0	279.2638916	-218.6508438	-175.7794606
272	30	3	0	277.9711127	-218.1392054	-176.0892134
273	30	1	0	279.4435456	-217.7708441	-173.7448796
274	30	1	0	277.3814353	-217.7320099	-175.3277144
275	31	3	0	314.7707911	-249.4639639	-215.5295222
276	31	3	0	315.3007835	-249.2561536	-214.2320115
277	31	3	0	316.6275548	-249.5299179	-213.9651118
278	31	3	0	317.2390753	-249.1097261	-212.7322427
279	31	3	0	316.4518106	-248.4805163	-211.7582974
280	31	3	0	315.1189483	-248.2101566	-212.0297093
281	31	3	0	314.5427264	-248.5926493	-213.2468384
282	31	3	0	313.2469679	-248.1141278	-213.5720729
283	31	1	0	315.4409299	-249.9085491	-216.3047946
284	31	1	0	317.1944258	-249.9719337	-214.6421784
285	32	3	0	312.4449089	-247.3603339	-212.6335579
286	32	3	0	313.0786112	-246.9883758	-211.3860941
287	32	3	0	314.3588498	-247.4438131	-211.034153
288	32	3	0	314.9484594	-247.010421	-209.8641107
289	32	3	0	314.2445686	-246.1375627	-209.0291659
290	32	3	0	312.9641677	-245.6848244	-209.3281675
291	32	3	0	312.358703	-246.1310287	-210.5177938
292	32	3	0	311.0360529	-245.6740905	-210.7923912
293	33	3	0	310.2729007	-244.8756082	-209.8473503
294	33	3	0	310.8527295	-244.5773799	-208.6247131
295	33	3	0	312.238031	-244.8960944	-208.4007535
296	33	3	0	312.7922503	-244.6539097	-207.0946318
297	33	3	0	312.0629181	-243.9204371	-206.1574036
298	33	3	0	310.7133235	-243.5778922	-206.3923432
299	33	3	0	310.141001	-243.9044219	-207.6494487
300	33	3	0	308.7988497	-243.4541097	-207.8980537
301	34	3	0	308.0769805	-242.6794731	-207.0084158
302	34	3	0	308.6459271	-242.410147	-205.7190748
303	34	3	0	309.9714895	-242.8633647	-205.4602483
304	34	3	0	310.5222701	-242.4563099	-204.23836
305	34	3	0	309.7519876	-241.8206833	-203.2245692
306	34	3	0	308.4544791	-241.3436056	-203.5394889
307	34	3	0	307.8779478	-241.7430814	-204.7789993
308	34	3	0	306.5696994	-241.2729015	-205.0749851
309	35	3	0	305.8638909	-240.4542515	-204.1685371
310	35	3	0	306.4279469	-240.0893701	-202.8920522
311	35	3	0	307.7577648	-240.4986778	-202.6311876
312	35	3	0	308.3542963	-240.1917314	-201.4026736
313	35	3	0	307.5839266	-239.4298862	-200.4964839
314	35	3	0	306.2732997	-239.0279373	-200.8188191
315	35	3	0	305.7561836	-239.2321226	-202.0840253
316	35	3	0	304.4038605	-238.8732281	-202.3217496
317	36	3	0	303.6141021	-238.253716	-201.3796938
318	36	3	0	304.2321217	-237.8491759	-200.1578628
319	36	3	0	305.5850434	-238.1840457	-199.8873906
320	36	3	0	306.1792832	-237.6915786	-198.7006884
321	36	3	0	305.4868311	-236.8531896	-197.8248392
322	36	3	0	304.1320626	-236.5799162	-198.0739978
323	36	3	0	303.5048817	-237.0423064	-199.1970674
324	36	3	0	302.1340147	-236.6209551	-199.5160451
325	37	3	0	301.3672421	-235.8671892	-198.6303466
326	37	3	0	302.0108831	-235.34192	-197.4397613
327	37	3	0	303.3705541	-235.7482426	-197.1312784
328	37	3	0	303.9445417	-235.3379219	-195.9276421
329	37	3	0	303.2954164	-234.5263376	-195.019227
330	37	3	0	301.9554652	-234.1777171	-195.2874842
331	37	3	0	301.3163425	-234.548156	-196.5387424
332	37	3	0	299.889063	-234.3175623	-196.7396413
333	38	3	0	299.1711411	-233.6628305	-195.7376831
334	38	3	0	299.8369471	-233.2654933	-194.4955487
335	38	3	0	301.2077337	-233.4752424	-194.3064212
336	38	3	0	301.8506651	-233.1269983	-193.0480733
337	38	3	0	301.0396851	-232.4968044	-192.074346
338	38	3	0	299.6463534	-232.2026876	-192.2972905
339	38	3	0	299.0302059	-232.6560912	-193.4739597
340	38	3	0	297.7113452	-232.2205947	-193.826809
341	39	3	0	296.9671186	-231.4773902	-192.8647527
342	39	3	0	297.6208985	-231.0951401	-191.6378264
343	39	3	0	298.9649775	-231.4526793	-191.391717
344	39	3	0	299.6109389	-230.9604818	-190.2659458
345	39	3	0	298.8348622	-230.2224292	-189.2618854
346	39	3	0	297.4676617	-229.8737586	-189.509767
347	39	3	0	296.8223892	-230.3455426	-190.6937806
348	39	3	0	295.4824833	-229.9671473	-190.9841877
349	40	3	0	294.7141105	-229.3607182	-189.9915033
350	40	3	0	295.3137324	-228.9674225	-188.7784274
351	40	3	0	296.7145442	-229.218887	-188.5371252
352	40	3	0	297.3161799	-228.8007358	-187.3696846
353	40	3	0	296.5754292	-228.057059	-186.4467071
354	40	3	0	295.1727597	-227.7865889	-186.6669478
355	40	3	0	294.5761592	-228.2008198	-187.8773842
356	40	3	0	293.2614213	-227.7079165	-188.1863979
357	41	3	0	292.5587953	-226.937501	-187.1973075
358	41	3	0	293.1210196	-226.62161	-185.9669168
359	41	3	0	294.4747325	-227.0397107	-185.7153478
360	41	3	0	295.0290687	-226.7515954	-184.4540092
361	41	3	0	294.2909495	-226.0570539	-183.4612641
362	41	3	0	292.9570705	-225.7444584	-183.7100812
363	41	3	0	292.3988907	-226.034488	-184.9806828
364	41	3	0	291.0325372	-225.5890976	-185.2388166
365	42	3	0	290.2531677	-224.8671301	-184.2341906
366	42	3	0	290.7850657	-224.7153553	-182.9707808
367	42	3	0	292.133707	-225.1247341	-182.7012662
368	42	3	0	292.7134218	-224.8365325	-181.4628064
369	42	3	0	291.9482539	-224.3006898	-180.4066921
370	42	3	0	290.6244169	-223.9613669	-180.6478094
371	42	3	0	290.0301624	-224.1280321	-181.9420076
372	42	3	0	288.6970826	-223.7569721	-182.1361668
373	43	3	0	287.9788601	-223.1850265	-181.2004472
374	43	3	0	288.5191236	-222.9579695	-179.9024883
375	43	3	0	289.8174543	-223.3218262	-179.6323113
376	43	3	0	290.4043847	-222.9594796	-178.3785797
377	43	3	0	289.6718896	-222.3072761	-177.3763828
378	43	3	0	288.3027773	-222.1042995	-177.6751364
379	43	3	0	287.7046155	-222.4339673	-178.8670051
380	43	3	0	286.3244229	-222.165746	-179.1058392
381	44	3	0	285.60865	-221.5015495	-178.1091283
382	44	3	0	286.223186	-221.1165332	-176.8687336
383	44	3	0	287.5477028	-221.4117176	-176.6397302
384	44	3	0	288.1664628	-221.0247851	-175.3731076
385	44	3	0	287.3781217	-220.3484368	-174.440839
386	44	3	0	286.0506789	-220.2186092	-174.6185213
387	44	3	0	285.4800866	-220.5496723	-175.8744528
388	44	3	0	284.0912274	-220.2759773	-176.0288469
389	45	3	0	283.3013511	-219.7634057	-174.9673356
390	45	3	0	283.8710132	-219.3878281	-173.7507751
391	45	3	0	285.2465381	-219.6214424	-173.5974581
392	45	3	0	285.8186905	-219.0884078	-172.3716354
393	45	3	0	285.0978424	-218.5418504	-171.3391119
394	45	3	0	283.7273388	-218.3508567	-171.5484357
395	45	3	0	283.0894734	-218.7539274	-172.780181
396	45	3	0	281.7236038	-218.4923162	-173.0016838
397	45	1	0	283.1037135	-217.9429375	-170.7448219
398	45	1	0	281.1754352	-217.9973137	-172.235943
399	46	3	0	318.5432296	-249.4434134	-212.5048099
400	46	3	0	319.0825228	-249.2158605	-211.2233703
401	46	3	0	320.3410737	-249.6679457	-210.9181772
402	46	3	0	320.9691119	-249.394024	-209.7081489
403	46	3	0	320.2103375	-248.7248234	-208.6910305
404	46	3	0	318.8647498	-248.2912453	-208.9899928
405	46	3	0	318.3665246	-248.526496	-210.251463
406	46	3	0	317.0342434	-248.0238652	-210.5921818
407	46	1	0	319.1948431	-249.9608929	-213.2128405
408	46	1	0	320.8080116	-250.2194103	-211.7033128
409	47	3	0	316.2698125	-247.3588239	-209.5666314
410	47	3	0	316.8338398	-247.0555391	-208.3073405
411	47	3	0	318.1196259	-247.5830959	-208.0438106
412	47	3	0	318.7250387	-247.1562904	-206.8280945
413	47	3	0	318.0836138	-246.2247568	-205.9766202
414	47	3	0	316.6948259	-245.912825	-206.2080698
415	47	3	0	316.1444021	-246.22214	-207.4199885
416	47	3	0	314.8520052	-245.7932471	-207.7646261
417	48	3	0	314.1280368	-245.0033204	-206.8468429
418	48	3	0	314.721387	-244.663978	-205.6029864
419	48	3	0	316.0383961	-245.0459515	-205.3434958
420	48	3	0	316.6440043	-244.6899465	-204.1299103
421	48	3	0	315.8812922	-244.0106368	-203.1154858
422	48	3	0	314.481903	-243.692215	-203.3334324
423	48	3	0	313.9809001	-244.0087543	-204.6418651
424	48	3	0	312.6162769	-243.6013173	-204.9093528
425	49	3	0	311.8645646	-242.8708432	-203.9262472
426	49	3	0	312.4703479	-242.5094172	-202.6914166
427	49	3	0	313.7935955	-242.8874909	-202.4367484
428	49	3	0	314.3480036	-242.4528945	-201.213527
429	49	3	0	313.6191252	-241.7733175	-200.2952443
430	49	3	0	312.3241701	-241.3437764	-200.5630439
431	49	3	0	311.6707169	-241.7703631	-201.7541738
432	49	3	0	310.3143313	-241.3985157	-202.0016089
433	50	3	0	309.7232546	-240.5044717	-201.1115256
434	50	3	0	310.2736302	-240.1828811	-199.8338191
435	50	3	0	311.6319	-240.5258919	-199.6267364
436	50	3	0	312.2025706	-240.1726555	-198.4221258
437	50	3	0	311.4080693	-239.5813876	-197.3982665
438	50	3	0	310.0738779	-239.0970913	-197.6833842
439	50	3	0	309.473444	-239.4697973	-198.9363108
440	50	3	0	308.1613343	-239.0454724	-199.2860802
441	51	3	0	307.4538994	-238.1815426	-198.3670299
442	51	3	0	308.0669713	-237.7835762	-197.1761373
443	51	3	0	309.3235908	-238.2654113	-196.8277212
444	51	3	0	309.8912376	-237.9505866	-195.5860922
445	51	3	0	309.310141	-236.9333962	-194.7795563
446	51	3	0	307.9938496	-236.5071104	-195.093387
447	51	3	0	307.362158	-236.8889587	-196.2947166
448	51	3	0	306.0643595	-236.5110091	-196.6049991
449	52	3	0	305.3236187	-235.71125	-195.648457
450	52	3	0	305.9683963	-235.325804	-194.4761521
451	52	3	0	307.3258563	-235.6883917	-194.1724275
452	52	3	0	307.849504	-235.3978825	-192.8915967
453	52	3	0	307.1738205	-234.6423819	-191.9842505
454	52	3	0	305.81153	-234.1984997	-192.2780559
455	52	3	0	305.2847498	-234.5142845	-193.5417031
456	52	3	0	303.9121939	-234.1213046	-193.8547944
457	53	3	0	303.2124034	-233.4259366	-192.8525786
458	53	3	0	303.7831618	-233.1479249	-191.6084517
459	53	3	0	305.0800644	-233.5169864	-191.3556148
460	53	3	0	305.6597189	-233.1267653	-190.1020477
461	53	3	0	304.9649056	-232.5296459	-189.0874993
462	53	3	0	303.5996355	-232.0614094	-189.4168907
463	53	3	0	303.0506577	-232.4439136	-190.6701506
464	53	3	0	301.6717555	-232.0685411	-190.9517899
465	54	3	0	300.9343901	-231.2828765	-189.9953654
466	54	3	0	301.5345393	-230.9235273	-188.7607751
467	54	3	0	302.8799694	-231.3563436	-188.4715271
468	54	3	0	303.4609999	-230.9955427	-187.2873262
469	54	3	0	302.6973919	-230.2899988	-186.2577568
470	54	3	0	301.3700389	-229.9300453	-186.4996301
471	54	3	0	300.7734402	-230.2672437	-187.7494441
472	54	3	0	299.44249	-229.9555422	-188.0388658
473	55	3	0	298.6835388	-229.279292	-187.0480872
474	55	3	0	299.2274932	-228.9265705	-185.7899715
475	55	3	0	300.5533631	-229.2251593	-185.5313695
476	55	3	0	301.1329694	-228.8264259	-184.3216139
477	55	3	0	300.3727107	-228.1427653	-183.3427671
478	55	3	0	299.0721963	-227.6903866	-183.682463
479	55	3	0	298.4882622	-228.1424852	-184.9318646
480	55	3	0	297.1444467	-227.7201367	-185.1945391
481	56	3	0	296.3912412	-227.0439522	-184.2261512
482	56	3	0	296.996456	-226.6128822	-183.0284484
483	56	3	0	298.3225548	-226.925178	-182.7305519
484	56	3	0	298.9716903	-226.6207527	-181.4865423
485	56	3	0	298.1825166	-226.0234724	-180.4813837
486	56	3	0	296.8033501	-225.782338	-180.6626269
487	56	3	0	296.2635418	-225.9804401	-182.0147313
488	56	3	0	294.9108807	-225.7192581	-182.237261
489	57	3	0	294.0731725	-225.1138778	-181.2016683
490	57	3	0	294.6780543	-224.7090762	-179.9849631
491	57	3	0	296.0087488	-225.0616863	-179.7061768
492	57	3	0	296.6245912	-224.7369958	-178.4884961
493	57	3	0	295.9058632	-224.0011075	-177.4858747
494	57	3	0	294.5149643	-223.7174629	-177.7285763
495	57	3	0	293.9465429	-224.1315951	-178.970885
496	57	3	0	292.545713	-223.959077	-179.2241664