LAMMPS data file. CGCMM style. atom_style full generated by VMD/TopoTools v1.7 on Tue May 24 22:01:43 +0800 2022
 1668 atoms
 2392 bonds
 4674 angles
 9128 dihedrals
 0 impropers
 2 atom types
 2 bond types
 2 angle types
 4 dihedral types
 0 improper types
 -100.616510 99.383490  xlo xhi
 -100.271021 99.728979  ylo yhi
 -100.712492 99.287508  zlo zhi

Pair Coeffs

       1 0.03000000000000 2.42003727795642 0.03000000000000 2.42003727795642 # HGR61
       2 0.07000000000000 3.55005321204562 0.07000000000000 3.55005321204562 # CG2R61

Bond Coeffs

           1  305.000   1.3750 # CG2R61 CG2R61
           2  340.000   1.0800 # CG2R61 HGR61

Angle Coeffs

           1   40.00000  120.00000   35.00000    2.41620 # CG2R61 CG2R61 CG2R61
           2   30.00000  120.00000   22.00000    2.15250 # CG2R61 CG2R61 HGR61

Dihedral Coeffs

           1       3.1000        2          180 0.50 # CG2R61 CG2R61 CG2R61 CG2R61
           2       3.1000        2          180 1.00 # CG2R61 CG2R61 CG2R61 CG2R61
           3       4.2000        2          180 1.00 # CG2R61 CG2R61 CG2R61 HGR61
           4       2.4000        2          180 1.00 # HGR61 CG2R61 CG2R61 HGR61

 Masses

 1 1.008000 # 1
 2 12.011000 # 3

 Atoms # full

1 1 2 0.000000 -30.837000 -0.277000 -31.335501 # 3 
2 1 2 0.000000 -29.604000 -0.277000 -32.047501 # 3 
3 1 2 0.000000 -28.370001 -0.277000 -31.335501 # 3 
4 1 2 0.000000 -28.370001 -0.277000 -29.911501 # 3 
5 1 2 0.000000 -29.604000 -0.277000 -29.199499 # 3 
6 1 2 0.000000 -30.837000 -0.277000 -29.911501 # 3 
7 1 2 0.000000 -32.070999 -0.277000 -29.199499 # 3 
8 1 1 0.000000 -31.764122 -0.278898 -31.886820 # 1 
9 1 1 0.000000 -29.616129 -0.278351 -33.126133 # 1 
10 1 1 0.000000 -33.012253 -0.304886 -29.721893 # 1 
11 2 2 0.000000 -32.070999 -0.277000 -27.774500 # 3 
12 2 2 0.000000 -30.837000 -0.277000 -27.062500 # 3 
13 2 2 0.000000 -29.604000 -0.277000 -27.774500 # 3 
14 2 2 0.000000 -28.370001 -0.277000 -27.062500 # 3 
15 2 2 0.000000 -28.370001 -0.277000 -25.638500 # 3 
16 2 2 0.000000 -29.604000 -0.277000 -24.926500 # 3 
17 2 2 0.000000 -30.837000 -0.277000 -25.638500 # 3 
18 2 2 0.000000 -32.070999 -0.277000 -24.926500 # 3 
19 2 1 0.000000 -33.044624 -0.283448 -27.322939 # 1 
20 2 1 0.000000 -33.044029 -0.277519 -25.379721 # 1 
21 3 2 0.000000 -32.070999 -0.277000 -23.501499 # 3 
22 3 2 0.000000 -30.837000 -0.277000 -22.789499 # 3 
23 3 2 0.000000 -29.604000 -0.277000 -23.501499 # 3 
24 3 2 0.000000 -28.370001 -0.277000 -22.789499 # 3 
25 3 2 0.000000 -28.370001 -0.277000 -21.365499 # 3 
26 3 2 0.000000 -29.604000 -0.277000 -20.653500 # 3 
27 3 2 0.000000 -30.837000 -0.277000 -21.365499 # 3 
28 3 2 0.000000 -32.070999 -0.277000 -20.653500 # 3 
29 3 1 0.000000 -33.044170 -0.276544 -23.048750 # 1 
30 3 1 0.000000 -33.043880 -0.281001 -21.106653 # 1 
31 4 2 0.000000 -32.070999 -0.277000 -19.228500 # 3 
32 4 2 0.000000 -30.837000 -0.277000 -18.516500 # 3 
33 4 2 0.000000 -29.604000 -0.277000 -19.228500 # 3 
34 4 2 0.000000 -28.370001 -0.277000 -18.516500 # 3 
35 4 2 0.000000 -28.370001 -0.277000 -17.092501 # 3 
36 4 2 0.000000 -29.604000 -0.277000 -16.380501 # 3 
37 4 2 0.000000 -30.837000 -0.277000 -17.092501 # 3 
38 4 2 0.000000 -32.070999 -0.277000 -16.380501 # 3 
39 4 1 0.000000 -33.041107 -0.287687 -18.773512 # 1 
40 4 1 0.000000 -33.044094 -0.275737 -16.832520 # 1 
41 5 2 0.000000 -32.070999 -0.277000 -14.955500 # 3 
42 5 2 0.000000 -30.837000 -0.277000 -14.243500 # 3 
43 5 2 0.000000 -29.604000 -0.277000 -14.955500 # 3 
44 5 2 0.000000 -28.370001 -0.277000 -14.243500 # 3 
45 5 2 0.000000 -28.370001 -0.277000 -12.819500 # 3 
46 5 2 0.000000 -29.604000 -0.277000 -12.107500 # 3 
47 5 2 0.000000 -30.837000 -0.277000 -12.819500 # 3 
48 5 2 0.000000 -32.070999 -0.277000 -12.107500 # 3 
49 5 1 0.000000 -33.044266 -0.272006 -14.503121 # 1 
50 5 1 0.000000 -33.044182 -0.269667 -12.559896 # 1 
51 6 2 0.000000 -32.070999 -0.277000 -10.682500 # 3 
52 6 2 0.000000 -30.837000 -0.277000 -9.970500 # 3 
53 6 2 0.000000 -29.604000 -0.277000 -10.682500 # 3 
54 6 2 0.000000 -28.370001 -0.277000 -9.970500 # 3 
55 6 2 0.000000 -28.370001 -0.277000 -8.546500 # 3 
56 6 2 0.000000 -29.604000 -0.277000 -7.834500 # 3 
57 6 2 0.000000 -30.837000 -0.277000 -8.546500 # 3 
58 6 2 0.000000 -32.070999 -0.277000 -7.834500 # 3 
59 6 1 0.000000 -33.044304 -0.276821 -10.229858 # 1 
60 6 1 0.000000 -33.044186 -0.277459 -8.287356 # 1 
61 7 2 0.000000 -32.070999 -0.277000 -6.409500 # 3 
62 7 2 0.000000 -30.837000 -0.277000 -5.697500 # 3 
63 7 2 0.000000 -29.604000 -0.277000 -6.409500 # 3 
64 7 2 0.000000 -28.370001 -0.277000 -5.697500 # 3 
65 7 2 0.000000 -28.370001 -0.277000 -4.273500 # 3 
66 7 2 0.000000 -29.604000 -0.277000 -3.561500 # 3 
67 7 2 0.000000 -30.837000 -0.277000 -4.273500 # 3 
68 7 2 0.000000 -32.070999 -0.277000 -3.561500 # 3 
69 7 1 0.000000 -33.044212 -0.277399 -5.956778 # 1 
70 7 1 0.000000 -33.044140 -0.279159 -4.014320 # 1 
71 8 2 0.000000 -32.070999 -0.277000 -2.136500 # 3 
72 8 2 0.000000 -30.837000 -0.277000 -1.424500 # 3 
73 8 2 0.000000 -29.604000 -0.277000 -2.136500 # 3 
74 8 2 0.000000 -28.370001 -0.277000 -1.424500 # 3 
75 8 2 0.000000 -28.370001 -0.277000 -0.000500 # 3 
76 8 2 0.000000 -29.604000 -0.277000 0.711500 # 3 
77 8 2 0.000000 -30.837000 -0.277000 -0.000500 # 3 
78 8 2 0.000000 -32.070999 -0.277000 0.711500 # 3 
79 8 1 0.000000 -33.043655 -0.290711 -1.684689 # 1 
80 8 1 0.000000 -33.040695 -0.285585 0.256209 # 1 
81 9 2 0.000000 -32.070999 -0.277000 2.136500 # 3 
82 9 2 0.000000 -30.837000 -0.277000 2.848500 # 3 
83 9 2 0.000000 -29.604000 -0.277000 2.136500 # 3 
84 9 2 0.000000 -28.370001 -0.277000 2.848500 # 3 
85 9 2 0.000000 -28.370001 -0.277000 4.272500 # 3 
86 9 2 0.000000 -29.604000 -0.277000 4.984500 # 3 
87 9 2 0.000000 -30.837000 -0.277000 4.272500 # 3 
88 9 2 0.000000 -32.070999 -0.277000 4.984500 # 3 
89 9 1 0.000000 -33.044323 -0.279251 2.589147 # 1 
90 9 1 0.000000 -33.043900 -0.271863 4.531121 # 1 
91 10 2 0.000000 -32.070999 -0.277000 6.409500 # 3 
92 10 2 0.000000 -30.837000 -0.277000 7.121500 # 3 
93 10 2 0.000000 -29.604000 -0.277000 6.409500 # 3 
94 10 2 0.000000 -28.370001 -0.277000 7.121500 # 3 
95 10 2 0.000000 -28.370001 -0.277000 8.545500 # 3 
96 10 2 0.000000 -29.604000 -0.277000 9.257500 # 3 
97 10 2 0.000000 -30.837000 -0.277000 8.545500 # 3 
98 10 2 0.000000 -32.070999 -0.277000 9.257500 # 3 
99 10 1 0.000000 -33.044331 -0.276350 6.862166 # 1 
100 10 1 0.000000 -33.044201 -0.278062 8.804605 # 1 
101 11 2 0.000000 -32.070999 -0.277000 10.682500 # 3 
102 11 2 0.000000 -30.837000 -0.277000 11.394500 # 3 
103 11 2 0.000000 -29.604000 -0.277000 10.682500 # 3 
104 11 2 0.000000 -28.370001 -0.277000 11.394500 # 3 
105 11 2 0.000000 -28.370001 -0.277000 12.818500 # 3 
106 11 2 0.000000 -29.604000 -0.277000 13.530500 # 3 
107 11 2 0.000000 -30.837000 -0.277000 12.818500 # 3 
108 11 2 0.000000 -32.070999 -0.277000 13.530500 # 3 
109 11 1 0.000000 -33.044228 -0.277554 11.135236 # 1 
110 11 1 0.000000 -33.044121 -0.277436 13.077546 # 1 
111 12 2 0.000000 -32.070999 -0.277000 14.955500 # 3 
112 12 2 0.000000 -30.837000 -0.277000 15.667500 # 3 
113 12 2 0.000000 -29.604000 -0.277000 14.955500 # 3 
114 12 2 0.000000 -28.370001 -0.277000 15.667500 # 3 
115 12 2 0.000000 -28.370001 -0.277000 17.091499 # 3 
116 12 2 0.000000 -29.604000 -0.277000 17.803499 # 3 
117 12 2 0.000000 -30.837000 -0.277000 17.091499 # 3 
118 12 2 0.000000 -32.070999 -0.277000 17.803499 # 3 
119 12 1 0.000000 -33.044075 -0.277395 15.408424 # 1 
120 12 1 0.000000 -33.044224 -0.277099 17.350889 # 1 
121 13 2 0.000000 -32.070999 -0.277000 19.228500 # 3 
122 13 2 0.000000 -30.837000 -0.277000 19.940500 # 3 
123 13 2 0.000000 -29.604000 -0.277000 19.228500 # 3 
124 13 2 0.000000 -28.370001 -0.277000 19.940500 # 3 
125 13 2 0.000000 -28.370001 -0.277000 21.364500 # 3 
126 13 2 0.000000 -29.604000 -0.277000 22.076500 # 3 
127 13 2 0.000000 -30.837000 -0.277000 21.364500 # 3 
128 13 2 0.000000 -32.070999 -0.277000 22.076500 # 3 
129 13 1 0.000000 -33.039116 -0.275640 19.684645 # 1 
130 13 1 0.000000 -33.044678 -0.275767 21.624823 # 1 
131 14 2 0.000000 -32.070999 -0.277000 23.501499 # 3 
132 14 2 0.000000 -30.837000 -0.277000 24.213499 # 3 
133 14 2 0.000000 -29.604000 -0.277000 23.501499 # 3 
134 14 2 0.000000 -28.370001 -0.277000 24.213499 # 3 
135 14 2 0.000000 -28.370001 -0.277000 25.637501 # 3 
136 14 2 0.000000 -29.604000 -0.277000 26.349501 # 3 
137 14 2 0.000000 -30.837000 -0.277000 25.637501 # 3 
138 14 2 0.000000 -32.070999 -0.277000 26.349501 # 3 
139 14 1 0.000000 -33.043713 -0.262257 23.954487 # 1 
140 14 1 0.000000 -33.044720 -0.275873 25.897776 # 1 
141 15 2 0.000000 -32.070999 -0.277000 27.774500 # 3 
142 15 2 0.000000 -30.837000 -0.277000 28.486500 # 3 
143 15 2 0.000000 -29.604000 -0.277000 27.774500 # 3 
144 15 2 0.000000 -28.370001 -0.277000 28.486500 # 3 
145 15 2 0.000000 -28.370001 -0.277000 29.910500 # 3 
146 15 2 0.000000 -29.604000 -0.277000 30.622499 # 3 
147 15 2 0.000000 -30.837000 -0.277000 29.910500 # 3 
148 15 1 0.000000 -33.008587 -0.256611 28.299660 # 1 
149 15 1 0.000000 -29.617558 -0.277263 31.701284 # 1 
150 15 1 0.000000 -31.764669 -0.280426 30.461420 # 1 
151 16 2 0.000000 -27.137001 -0.277000 -32.047501 # 3 
152 16 2 0.000000 -25.903000 -0.277000 -31.335501 # 3 
153 16 2 0.000000 -24.670000 -0.277000 -32.047501 # 3 
154 16 2 0.000000 -23.436001 -0.277000 -31.335501 # 3 
155 16 2 0.000000 -23.436001 -0.277000 -29.911501 # 3 
156 16 2 0.000000 -24.670000 -0.277000 -29.199499 # 3 
157 16 2 0.000000 -25.903000 -0.277000 -29.911501 # 3 
158 16 2 0.000000 -27.137001 -0.277000 -29.199499 # 3 
159 16 1 0.000000 -27.137085 -0.275961 -33.127392 # 1 
160 16 1 0.000000 -24.672083 -0.289015 -33.126698 # 1 
161 17 2 0.000000 -27.137001 -0.277000 -27.774500 # 3 
162 17 2 0.000000 -25.903000 -0.277000 -27.062500 # 3 
163 17 2 0.000000 -24.670000 -0.277000 -27.774500 # 3 
164 17 2 0.000000 -23.436001 -0.277000 -27.062500 # 3 
165 17 2 0.000000 -23.436001 -0.277000 -25.638500 # 3 
166 17 2 0.000000 -24.670000 -0.277000 -24.926500 # 3 
167 17 2 0.000000 -25.903000 -0.277000 -25.638500 # 3 
168 17 2 0.000000 -27.137001 -0.277000 -24.926500 # 3 
169 18 2 0.000000 -27.137001 -0.277000 -23.501499 # 3 
170 18 2 0.000000 -25.903000 -0.277000 -22.789499 # 3 
171 18 2 0.000000 -24.670000 -0.277000 -23.501499 # 3 
172 18 2 0.000000 -23.436001 -0.277000 -22.789499 # 3 
173 18 2 0.000000 -23.436001 -0.277000 -21.365499 # 3 
174 18 2 0.000000 -24.670000 -0.277000 -20.653500 # 3 
175 18 2 0.000000 -25.903000 -0.277000 -21.365499 # 3 
176 18 2 0.000000 -27.137001 -0.277000 -20.653500 # 3 
177 19 2 0.000000 -27.137001 -0.277000 -19.228500 # 3 
178 19 2 0.000000 -25.903000 -0.277000 -18.516500 # 3 
179 19 2 0.000000 -24.670000 -0.277000 -19.228500 # 3 
180 19 2 0.000000 -23.436001 -0.277000 -18.516500 # 3 
181 19 2 0.000000 -23.436001 -0.277000 -17.092501 # 3 
182 19 2 0.000000 -24.670000 -0.277000 -16.380501 # 3 
183 19 2 0.000000 -25.903000 -0.277000 -17.092501 # 3 
184 19 2 0.000000 -27.137001 -0.277000 -16.380501 # 3 
185 20 2 0.000000 -27.137001 -0.277000 -14.955500 # 3 
186 20 2 0.000000 -25.903000 -0.277000 -14.243500 # 3 
187 20 2 0.000000 -24.670000 -0.277000 -14.955500 # 3 
188 20 2 0.000000 -23.436001 -0.277000 -14.243500 # 3 
189 20 2 0.000000 -23.436001 -0.277000 -12.819500 # 3 
190 20 2 0.000000 -24.670000 -0.277000 -12.107500 # 3 
191 20 2 0.000000 -25.903000 -0.277000 -12.819500 # 3 
192 20 2 0.000000 -27.137001 -0.277000 -12.107500 # 3 
193 21 2 0.000000 -27.137001 -0.277000 -10.682500 # 3 
194 21 2 0.000000 -25.903000 -0.277000 -9.970500 # 3 
195 21 2 0.000000 -24.670000 -0.277000 -10.682500 # 3 
196 21 2 0.000000 -23.436001 -0.277000 -9.970500 # 3 
197 21 2 0.000000 -23.436001 -0.277000 -8.546500 # 3 
198 21 2 0.000000 -24.670000 -0.277000 -7.834500 # 3 
199 21 2 0.000000 -25.903000 -0.277000 -8.546500 # 3 
200 21 2 0.000000 -27.137001 -0.277000 -7.834500 # 3 
201 22 2 0.000000 -27.137001 -0.277000 -6.409500 # 3 
202 22 2 0.000000 -25.903000 -0.277000 -5.697500 # 3 
203 22 2 0.000000 -24.670000 -0.277000 -6.409500 # 3 
204 22 2 0.000000 -23.436001 -0.277000 -5.697500 # 3 
205 22 2 0.000000 -23.436001 -0.277000 -4.273500 # 3 
206 22 2 0.000000 -24.670000 -0.277000 -3.561500 # 3 
207 22 2 0.000000 -25.903000 -0.277000 -4.273500 # 3 
208 22 2 0.000000 -27.137001 -0.277000 -3.561500 # 3 
209 23 2 0.000000 -27.137001 -0.277000 -2.136500 # 3 
210 23 2 0.000000 -25.903000 -0.277000 -1.424500 # 3 
211 23 2 0.000000 -24.670000 -0.277000 -2.136500 # 3 
212 23 2 0.000000 -23.436001 -0.277000 -1.424500 # 3 
213 23 2 0.000000 -23.436001 -0.277000 -0.000500 # 3 
214 23 2 0.000000 -24.670000 -0.277000 0.711500 # 3 
215 23 2 0.000000 -25.903000 -0.277000 -0.000500 # 3 
216 23 2 0.000000 -27.137001 -0.277000 0.711500 # 3 
217 24 2 0.000000 -27.137001 -0.277000 2.136500 # 3 
218 24 2 0.000000 -25.903000 -0.277000 2.848500 # 3 
219 24 2 0.000000 -24.670000 -0.277000 2.136500 # 3 
220 24 2 0.000000 -23.436001 -0.277000 2.848500 # 3 
221 24 2 0.000000 -23.436001 -0.277000 4.272500 # 3 
222 24 2 0.000000 -24.670000 -0.277000 4.984500 # 3 
223 24 2 0.000000 -25.903000 -0.277000 4.272500 # 3 
224 24 2 0.000000 -27.137001 -0.277000 4.984500 # 3 
225 25 2 0.000000 -27.137001 -0.277000 6.409500 # 3 
226 25 2 0.000000 -25.903000 -0.277000 7.121500 # 3 
227 25 2 0.000000 -24.670000 -0.277000 6.409500 # 3 
228 25 2 0.000000 -23.436001 -0.277000 7.121500 # 3 
229 25 2 0.000000 -23.436001 -0.277000 8.545500 # 3 
230 25 2 0.000000 -24.670000 -0.277000 9.257500 # 3 
231 25 2 0.000000 -25.903000 -0.277000 8.545500 # 3 
232 25 2 0.000000 -27.137001 -0.277000 9.257500 # 3 
233 26 2 0.000000 -27.137001 -0.277000 10.682500 # 3 
234 26 2 0.000000 -25.903000 -0.277000 11.394500 # 3 
235 26 2 0.000000 -24.670000 -0.277000 10.682500 # 3 
236 26 2 0.000000 -23.436001 -0.277000 11.394500 # 3 
237 26 2 0.000000 -23.436001 -0.277000 12.818500 # 3 
238 26 2 0.000000 -24.670000 -0.277000 13.530500 # 3 
239 26 2 0.000000 -25.903000 -0.277000 12.818500 # 3 
240 26 2 0.000000 -27.137001 -0.277000 13.530500 # 3 
241 27 2 0.000000 -27.137001 -0.277000 14.955500 # 3 
242 27 2 0.000000 -25.903000 -0.277000 15.667500 # 3 
243 27 2 0.000000 -24.670000 -0.277000 14.955500 # 3 
244 27 2 0.000000 -23.436001 -0.277000 15.667500 # 3 
245 27 2 0.000000 -23.436001 -0.277000 17.091499 # 3 
246 27 2 0.000000 -24.670000 -0.277000 17.803499 # 3 
247 27 2 0.000000 -25.903000 -0.277000 17.091499 # 3 
248 27 2 0.000000 -27.137001 -0.277000 17.803499 # 3 
249 28 2 0.000000 -27.137001 -0.277000 19.228500 # 3 
250 28 2 0.000000 -25.903000 -0.277000 19.940500 # 3 
251 28 2 0.000000 -24.670000 -0.277000 19.228500 # 3 
252 28 2 0.000000 -23.436001 -0.277000 19.940500 # 3 
253 28 2 0.000000 -23.436001 -0.277000 21.364500 # 3 
254 28 2 0.000000 -24.670000 -0.277000 22.076500 # 3 
255 28 2 0.000000 -25.903000 -0.277000 21.364500 # 3 
256 28 2 0.000000 -27.137001 -0.277000 22.076500 # 3 
257 29 2 0.000000 -27.137001 -0.277000 23.501499 # 3 
258 29 2 0.000000 -25.903000 -0.277000 24.213499 # 3 
259 29 2 0.000000 -24.670000 -0.277000 23.501499 # 3 
260 29 2 0.000000 -23.436001 -0.277000 24.213499 # 3 
261 29 2 0.000000 -23.436001 -0.277000 25.637501 # 3 
262 29 2 0.000000 -24.670000 -0.277000 26.349501 # 3 
263 29 2 0.000000 -25.903000 -0.277000 25.637501 # 3 
264 29 2 0.000000 -27.137001 -0.277000 26.349501 # 3 
265 30 2 0.000000 -27.137001 -0.277000 27.774500 # 3 
266 30 2 0.000000 -25.903000 -0.277000 28.486500 # 3 
267 30 2 0.000000 -24.670000 -0.277000 27.774500 # 3 
268 30 2 0.000000 -23.436001 -0.277000 28.486500 # 3 
269 30 2 0.000000 -23.436001 -0.277000 29.910500 # 3 
270 30 2 0.000000 -24.670000 -0.277000 30.622499 # 3 
271 30 2 0.000000 -25.903000 -0.277000 29.910500 # 3 
272 30 2 0.000000 -27.137001 -0.277000 30.622499 # 3 
273 30 1 0.000000 -24.670525 -0.286342 31.700718 # 1 
274 30 1 0.000000 -27.130379 -0.261421 31.696671 # 1 
275 31 2 0.000000 -22.203001 -0.277000 -32.047501 # 3 
276 31 2 0.000000 -20.969000 -0.277000 -31.335501 # 3 
277 31 2 0.000000 -19.736000 -0.277000 -32.047501 # 3 
278 31 2 0.000000 -18.502001 -0.277000 -31.335501 # 3 
279 31 2 0.000000 -18.502001 -0.277000 -29.911501 # 3 
280 31 2 0.000000 -19.736000 -0.277000 -29.199499 # 3 
281 31 2 0.000000 -20.969000 -0.277000 -29.911501 # 3 
282 31 2 0.000000 -22.203001 -0.277000 -29.199499 # 3 
283 31 1 0.000000 -22.205093 -0.269705 -33.126148 # 1 
284 31 1 0.000000 -19.735811 -0.276067 -33.127407 # 1 
285 32 2 0.000000 -22.203001 -0.277000 -27.774500 # 3 
286 32 2 0.000000 -20.969000 -0.277000 -27.062500 # 3 
287 32 2 0.000000 -19.736000 -0.277000 -27.774500 # 3 
288 32 2 0.000000 -18.502001 -0.277000 -27.062500 # 3 
289 32 2 0.000000 -18.502001 -0.277000 -25.638500 # 3 
290 32 2 0.000000 -19.736000 -0.277000 -24.926500 # 3 
291 32 2 0.000000 -20.969000 -0.277000 -25.638500 # 3 
292 32 2 0.000000 -22.203001 -0.277000 -24.926500 # 3 
293 33 2 0.000000 -22.203001 -0.277000 -23.501499 # 3 
294 33 2 0.000000 -20.969000 -0.277000 -22.789499 # 3 
295 33 2 0.000000 -19.736000 -0.277000 -23.501499 # 3 
296 33 2 0.000000 -18.502001 -0.277000 -22.789499 # 3 
297 33 2 0.000000 -18.502001 -0.277000 -21.365499 # 3 
298 33 2 0.000000 -19.736000 -0.277000 -20.653500 # 3 
299 33 2 0.000000 -20.969000 -0.277000 -21.365499 # 3 
300 33 2 0.000000 -22.203001 -0.277000 -20.653500 # 3 
301 34 2 0.000000 -22.203001 -0.277000 -19.228500 # 3 
302 34 2 0.000000 -20.969000 -0.277000 -18.516500 # 3 
303 34 2 0.000000 -19.736000 -0.277000 -19.228500 # 3 
304 34 2 0.000000 -18.502001 -0.277000 -18.516500 # 3 
305 34 2 0.000000 -18.502001 -0.277000 -17.092501 # 3 
306 34 2 0.000000 -19.736000 -0.277000 -16.380501 # 3 
307 34 2 0.000000 -20.969000 -0.277000 -17.092501 # 3 
308 34 2 0.000000 -22.203001 -0.277000 -16.380501 # 3 
309 35 2 0.000000 -22.203001 -0.277000 -14.955500 # 3 
310 35 2 0.000000 -20.969000 -0.277000 -14.243500 # 3 
311 35 2 0.000000 -19.736000 -0.277000 -14.955500 # 3 
312 35 2 0.000000 -18.502001 -0.277000 -14.243500 # 3 
313 35 2 0.000000 -18.502001 -0.277000 -12.819500 # 3 
314 35 2 0.000000 -19.736000 -0.277000 -12.107500 # 3 
315 35 2 0.000000 -20.969000 -0.277000 -12.819500 # 3 
316 35 2 0.000000 -22.203001 -0.277000 -12.107500 # 3 
317 36 2 0.000000 -22.203001 -0.277000 -10.682500 # 3 
318 36 2 0.000000 -20.969000 -0.277000 -9.970500 # 3 
319 36 2 0.000000 -19.736000 -0.277000 -10.682500 # 3 
320 36 2 0.000000 -18.502001 -0.277000 -9.970500 # 3 
321 36 2 0.000000 -18.502001 -0.277000 -8.546500 # 3 
322 36 2 0.000000 -19.736000 -0.277000 -7.834500 # 3 
323 36 2 0.000000 -20.969000 -0.277000 -8.546500 # 3 
324 36 2 0.000000 -22.203001 -0.277000 -7.834500 # 3 
325 37 2 0.000000 -22.203001 -0.277000 -6.409500 # 3 
326 37 2 0.000000 -20.969000 -0.277000 -5.697500 # 3 
327 37 2 0.000000 -19.736000 -0.277000 -6.409500 # 3 
328 37 2 0.000000 -18.502001 -0.277000 -5.697500 # 3 
329 37 2 0.000000 -18.502001 -0.277000 -4.273500 # 3 
330 37 2 0.000000 -19.736000 -0.277000 -3.561500 # 3 
331 37 2 0.000000 -20.969000 -0.277000 -4.273500 # 3 
332 37 2 0.000000 -22.203001 -0.277000 -3.561500 # 3 
333 38 2 0.000000 -22.203001 -0.277000 -2.136500 # 3 
334 38 2 0.000000 -20.969000 -0.277000 -1.424500 # 3 
335 38 2 0.000000 -19.736000 -0.277000 -2.136500 # 3 
336 38 2 0.000000 -18.502001 -0.277000 -1.424500 # 3 
337 38 2 0.000000 -18.502001 -0.277000 -0.000500 # 3 
338 38 2 0.000000 -19.736000 -0.277000 0.711500 # 3 
339 38 2 0.000000 -20.969000 -0.277000 -0.000500 # 3 
340 38 2 0.000000 -22.203001 -0.277000 0.711500 # 3 
341 39 2 0.000000 -22.203001 -0.277000 2.136500 # 3 
342 39 2 0.000000 -20.969000 -0.277000 2.848500 # 3 
343 39 2 0.000000 -19.736000 -0.277000 2.136500 # 3 
344 39 2 0.000000 -18.502001 -0.277000 2.848500 # 3 
345 39 2 0.000000 -18.502001 -0.277000 4.272500 # 3 
346 39 2 0.000000 -19.736000 -0.277000 4.984500 # 3 
347 39 2 0.000000 -20.969000 -0.277000 4.272500 # 3 
348 39 2 0.000000 -22.203001 -0.277000 4.984500 # 3 
349 40 2 0.000000 -22.203001 -0.277000 6.409500 # 3 
350 40 2 0.000000 -20.969000 -0.277000 7.121500 # 3 
351 40 2 0.000000 -19.736000 -0.277000 6.409500 # 3 
352 40 2 0.000000 -18.502001 -0.277000 7.121500 # 3 
353 40 2 0.000000 -18.502001 -0.277000 8.545500 # 3 
354 40 2 0.000000 -19.736000 -0.277000 9.257500 # 3 
355 40 2 0.000000 -20.969000 -0.277000 8.545500 # 3 
356 40 2 0.000000 -22.203001 -0.277000 9.257500 # 3 
357 41 2 0.000000 -22.203001 -0.277000 10.682500 # 3 
358 41 2 0.000000 -20.969000 -0.277000 11.394500 # 3 
359 41 2 0.000000 -19.736000 -0.277000 10.682500 # 3 
360 41 2 0.000000 -18.502001 -0.277000 11.394500 # 3 
361 41 2 0.000000 -18.502001 -0.277000 12.818500 # 3 
362 41 2 0.000000 -19.736000 -0.277000 13.530500 # 3 
363 41 2 0.000000 -20.969000 -0.277000 12.818500 # 3 
364 41 2 0.000000 -22.203001 -0.277000 13.530500 # 3 
365 42 2 0.000000 -22.203001 -0.277000 14.955500 # 3 
366 42 2 0.000000 -20.969000 -0.277000 15.667500 # 3 
367 42 2 0.000000 -19.736000 -0.277000 14.955500 # 3 
368 42 2 0.000000 -18.502001 -0.277000 15.667500 # 3 
369 42 2 0.000000 -18.502001 -0.277000 17.091499 # 3 
370 42 2 0.000000 -19.736000 -0.277000 17.803499 # 3 
371 42 2 0.000000 -20.969000 -0.277000 17.091499 # 3 
372 42 2 0.000000 -22.203001 -0.277000 17.803499 # 3 
373 43 2 0.000000 -22.203001 -0.277000 19.228500 # 3 
374 43 2 0.000000 -20.969000 -0.277000 19.940500 # 3 
375 43 2 0.000000 -19.736000 -0.277000 19.228500 # 3 
376 43 2 0.000000 -18.502001 -0.277000 19.940500 # 3 
377 43 2 0.000000 -18.502001 -0.277000 21.364500 # 3 
378 43 2 0.000000 -19.736000 -0.277000 22.076500 # 3 
379 43 2 0.000000 -20.969000 -0.277000 21.364500 # 3 
380 43 2 0.000000 -22.203001 -0.277000 22.076500 # 3 
381 44 2 0.000000 -22.203001 -0.277000 23.501499 # 3 
382 44 2 0.000000 -20.969000 -0.277000 24.213499 # 3 
383 44 2 0.000000 -19.736000 -0.277000 23.501499 # 3 
384 44 2 0.000000 -18.502001 -0.277000 24.213499 # 3 
385 44 2 0.000000 -18.502001 -0.277000 25.637501 # 3 
386 44 2 0.000000 -19.736000 -0.277000 26.349501 # 3 
387 44 2 0.000000 -20.969000 -0.277000 25.637501 # 3 
388 44 2 0.000000 -22.203001 -0.277000 26.349501 # 3 
389 45 2 0.000000 -22.203001 -0.277000 27.774500 # 3 
390 45 2 0.000000 -20.969000 -0.277000 28.486500 # 3 
391 45 2 0.000000 -19.736000 -0.277000 27.774500 # 3 
392 45 2 0.000000 -18.502001 -0.277000 28.486500 # 3 
393 45 2 0.000000 -18.502001 -0.277000 29.910500 # 3 
394 45 2 0.000000 -19.736000 -0.277000 30.622499 # 3 
395 45 2 0.000000 -20.969000 -0.277000 29.910500 # 3 
396 45 2 0.000000 -22.203001 -0.277000 30.622499 # 3 
397 45 1 0.000000 -19.736309 -0.277401 31.702471 # 1 
398 45 1 0.000000 -22.205250 -0.269832 31.699633 # 1 
399 46 2 0.000000 -17.269001 -0.277000 -32.047501 # 3 
400 46 2 0.000000 -16.035000 -0.277000 -31.335501 # 3 
401 46 2 0.000000 -14.802000 -0.277000 -32.047501 # 3 
402 46 2 0.000000 -13.568000 -0.277000 -31.335501 # 3 
403 46 2 0.000000 -13.568000 -0.277000 -29.911501 # 3 
404 46 2 0.000000 -14.802000 -0.277000 -29.199499 # 3 
405 46 2 0.000000 -16.035000 -0.277000 -29.911501 # 3 
406 46 2 0.000000 -17.269001 -0.277000 -29.199499 # 3 
407 46 1 0.000000 -17.269146 -0.279182 -33.127186 # 1 
408 46 1 0.000000 -14.802184 -0.276794 -33.127441 # 1 
409 47 2 0.000000 -17.269001 -0.277000 -27.774500 # 3 
410 47 2 0.000000 -16.035000 -0.277000 -27.062500 # 3 
411 47 2 0.000000 -14.802000 -0.277000 -27.774500 # 3 
412 47 2 0.000000 -13.568000 -0.277000 -27.062500 # 3 
413 47 2 0.000000 -13.568000 -0.277000 -25.638500 # 3 
414 47 2 0.000000 -14.802000 -0.277000 -24.926500 # 3 
415 47 2 0.000000 -16.035000 -0.277000 -25.638500 # 3 
416 47 2 0.000000 -17.269001 -0.277000 -24.926500 # 3 
417 48 2 0.000000 -17.269001 -0.277000 -23.501499 # 3 
418 48 2 0.000000 -16.035000 -0.277000 -22.789499 # 3 
419 48 2 0.000000 -14.802000 -0.277000 -23.501499 # 3 
420 48 2 0.000000 -13.568000 -0.277000 -22.789499 # 3 
421 48 2 0.000000 -13.568000 -0.277000 -21.365499 # 3 
422 48 2 0.000000 -14.802000 -0.277000 -20.653500 # 3 
423 48 2 0.000000 -16.035000 -0.277000 -21.365499 # 3 
424 48 2 0.000000 -17.269001 -0.277000 -20.653500 # 3 
425 49 2 0.000000 -17.269001 -0.277000 -19.228500 # 3 
426 49 2 0.000000 -16.035000 -0.277000 -18.516500 # 3 
427 49 2 0.000000 -14.802000 -0.277000 -19.228500 # 3 
428 49 2 0.000000 -13.568000 -0.277000 -18.516500 # 3 
429 49 2 0.000000 -13.568000 -0.277000 -17.092501 # 3 
430 49 2 0.000000 -14.802000 -0.277000 -16.380501 # 3 
431 49 2 0.000000 -16.035000 -0.277000 -17.092501 # 3 
432 49 2 0.000000 -17.269001 -0.277000 -16.380501 # 3 
433 50 2 0.000000 -17.269001 -0.277000 -14.955500 # 3 
434 50 2 0.000000 -16.035000 -0.277000 -14.243500 # 3 
435 50 2 0.000000 -14.802000 -0.277000 -14.955500 # 3 
436 50 2 0.000000 -13.568000 -0.277000 -14.243500 # 3 
437 50 2 0.000000 -13.568000 -0.277000 -12.819500 # 3 
438 50 2 0.000000 -14.802000 -0.277000 -12.107500 # 3 
439 50 2 0.000000 -16.035000 -0.277000 -12.819500 # 3 
440 50 2 0.000000 -17.269001 -0.277000 -12.107500 # 3 
441 51 2 0.000000 -17.269001 -0.277000 -10.682500 # 3 
442 51 2 0.000000 -16.035000 -0.277000 -9.970500 # 3 
443 51 2 0.000000 -14.802000 -0.277000 -10.682500 # 3 
444 51 2 0.000000 -13.568000 -0.277000 -9.970500 # 3 
445 51 2 0.000000 -13.568000 -0.277000 -8.546500 # 3 
446 51 2 0.000000 -14.802000 -0.277000 -7.834500 # 3 
447 51 2 0.000000 -16.035000 -0.277000 -8.546500 # 3 
448 51 2 0.000000 -17.269001 -0.277000 -7.834500 # 3 
449 52 2 0.000000 -17.269001 -0.277000 -6.409500 # 3 
450 52 2 0.000000 -16.035000 -0.277000 -5.697500 # 3 
451 52 2 0.000000 -14.802000 -0.277000 -6.409500 # 3 
452 52 2 0.000000 -13.568000 -0.277000 -5.697500 # 3 
453 52 2 0.000000 -13.568000 -0.277000 -4.273500 # 3 
454 52 2 0.000000 -14.802000 -0.277000 -3.561500 # 3 
455 52 2 0.000000 -16.035000 -0.277000 -4.273500 # 3 
456 52 2 0.000000 -17.269001 -0.277000 -3.561500 # 3 
457 53 2 0.000000 -17.269001 -0.277000 -2.136500 # 3 
458 53 2 0.000000 -16.035000 -0.277000 -1.424500 # 3 
459 53 2 0.000000 -14.802000 -0.277000 -2.136500 # 3 
460 53 2 0.000000 -13.568000 -0.277000 -1.424500 # 3 
461 53 2 0.000000 -13.568000 -0.277000 -0.000500 # 3 
462 53 2 0.000000 -14.802000 -0.277000 0.711500 # 3 
463 53 2 0.000000 -16.035000 -0.277000 -0.000500 # 3 
464 53 2 0.000000 -17.269001 -0.277000 0.711500 # 3 
465 54 2 0.000000 -17.269001 -0.277000 2.136500 # 3 
466 54 2 0.000000 -16.035000 -0.277000 2.848500 # 3 
467 54 2 0.000000 -14.802000 -0.277000 2.136500 # 3 
468 54 2 0.000000 -13.568000 -0.277000 2.848500 # 3 
469 54 2 0.000000 -13.568000 -0.277000 4.272500 # 3 
470 54 2 0.000000 -14.802000 -0.277000 4.984500 # 3 
471 54 2 0.000000 -16.035000 -0.277000 4.272500 # 3 
472 54 2 0.000000 -17.269001 -0.277000 4.984500 # 3 
473 55 2 0.000000 -17.269001 -0.277000 6.409500 # 3 
474 55 2 0.000000 -16.035000 -0.277000 7.121500 # 3 
475 55 2 0.000000 -14.802000 -0.277000 6.409500 # 3 
476 55 2 0.000000 -13.568000 -0.277000 7.121500 # 3 
477 55 2 0.000000 -13.568000 -0.277000 8.545500 # 3 
478 55 2 0.000000 -14.802000 -0.277000 9.257500 # 3 
479 55 2 0.000000 -16.035000 -0.277000 8.545500 # 3 
480 55 2 0.000000 -17.269001 -0.277000 9.257500 # 3 
481 56 2 0.000000 -17.269001 -0.277000 10.682500 # 3 
482 56 2 0.000000 -16.035000 -0.277000 11.394500 # 3 
483 56 2 0.000000 -14.802000 -0.277000 10.682500 # 3 
484 56 2 0.000000 -13.568000 -0.277000 11.394500 # 3 
485 56 2 0.000000 -13.568000 -0.277000 12.818500 # 3 
486 56 2 0.000000 -14.802000 -0.277000 13.530500 # 3 
487 56 2 0.000000 -16.035000 -0.277000 12.818500 # 3 
488 56 2 0.000000 -17.269001 -0.277000 13.530500 # 3 
489 57 2 0.000000 -17.269001 -0.277000 14.955500 # 3 
490 57 2 0.000000 -16.035000 -0.277000 15.667500 # 3 
491 57 2 0.000000 -14.802000 -0.277000 14.955500 # 3 
492 57 2 0.000000 -13.568000 -0.277000 15.667500 # 3 
493 57 2 0.000000 -13.568000 -0.277000 17.091499 # 3 
494 57 2 0.000000 -14.802000 -0.277000 17.803499 # 3 
495 57 2 0.000000 -16.035000 -0.277000 17.091499 # 3 
496 57 2 0.000000 -17.269001 -0.277000 17.803499 # 3 
497 58 2 0.000000 -17.269001 -0.277000 19.228500 # 3 
498 58 2 0.000000 -16.035000 -0.277000 19.940500 # 3 
499 58 2 0.000000 -14.802000 -0.277000 19.228500 # 3 
500 58 2 0.000000 -13.568000 -0.277000 19.940500 # 3 
501 58 2 0.000000 -13.568000 -0.277000 21.364500 # 3 
502 58 2 0.000000 -14.802000 -0.277000 22.076500 # 3 
503 58 2 0.000000 -16.035000 -0.277000 21.364500 # 3 
504 58 2 0.000000 -17.269001 -0.277000 22.076500 # 3 
505 59 2 0.000000 -17.269001 -0.277000 23.501499 # 3 
506 59 2 0.000000 -16.035000 -0.277000 24.213499 # 3 
507 59 2 0.000000 -14.802000 -0.277000 23.501499 # 3 
508 59 2 0.000000 -13.568000 -0.277000 24.213499 # 3 
509 59 2 0.000000 -13.568000 -0.277000 25.637501 # 3 
510 59 2 0.000000 -14.802000 -0.277000 26.349501 # 3 
511 59 2 0.000000 -16.035000 -0.277000 25.637501 # 3 
512 59 2 0.000000 -17.269001 -0.277000 26.349501 # 3 
513 60 2 0.000000 -17.269001 -0.277000 27.774500 # 3 
514 60 2 0.000000 -16.035000 -0.277000 28.486500 # 3 
515 60 2 0.000000 -14.802000 -0.277000 27.774500 # 3 
516 60 2 0.000000 -13.568000 -0.277000 28.486500 # 3 
517 60 2 0.000000 -13.568000 -0.277000 29.910500 # 3 
518 60 2 0.000000 -14.802000 -0.277000 30.622499 # 3 
519 60 2 0.000000 -16.035000 -0.277000 29.910500 # 3 
520 60 2 0.000000 -17.269001 -0.277000 30.622499 # 3 
521 60 1 0.000000 -14.802562 -0.279728 31.702225 # 1 
522 60 1 0.000000 -17.268980 -0.276442 31.702494 # 1 
523 61 2 0.000000 -12.335000 -0.277000 -32.047501 # 3 